# vtk DataFile Version 3.0
d-3__ libgimli-untagt-win: I=6 lam=20 wz=1 rrms=485.295% chi^2=89.0914
ASCII
DATASET UNSTRUCTURED_GRID
POINTS 2909 double
-36.495075085019	0	1.256883850541
-36.24066080116	-0.343310000862	0.771180961152
-36.280388450638	-0.474694536075	1.734797654761
-36.935029771585	-0.608816692809	1.056685257545
-26	0	1.25
-26.5	0	1.26759198547
-26.261503585847	0	0.87611758063
-26.139257448257	-0.39638102549	0.560627916132
-1	3	0
-5.875000000053	3	0
-3.429558664888	4.351168184502	0.087109250857
-3.150217503991	1.77798449329	-1.951170513395
-16.69174401833	-0.927166059942	-1.294621647667
-15.866390039789	-0.568860212326	-0.218882412714
-14.836083768218	-0.558806492952	-0.717441694992
-15.729667677704	0.322034549088	-0.718604828087
-32.750000000053	0.433012701889	3
-32.500000000054	0	3
-32.000000000058	0	3
-32.61196895937	0.06451866021	3.847530842997
-7.911490711103	0.092822766464	-7.722363725583
-7.975023730432	4.521175901403	-10.266237220704
-3.483074196386	-0.632581116904	-10.941686955525
-9.855384695472	0.627051591285	-11.49182784346
-16.671490850781	-3.387893595563	3.12653583801
-15.738473977461	-5.271230956609	2.59106141564
-17.615750417936	-4.819808288165	4.792242363229
-18.300342651578	-4.573380834039	2.618909131954
-36.245925707062	0	1.691729001047
-36	0	1.25
-37.132449011865	-2.821623441143	0.505786686275
-35.601321315881	-2.108489595323	1.49527754077
-36.023576277326	-1.661146423275	0.156781276466
-36.806970031064	-1.700178673035	1.022312951647
-16.500000000104	0	3
-16.000000000103	0	3
-16.705100848729	-0.570819023976	3.750011861658
-16.735440222402	-0.511145087769	2.85032497138
-29.700090885134	-2.064234790359	0.312235197029
-29.178373198511	-1.293556769876	1.44369724255
-28.232245869952	-1.545082064628	0.564716872754
-29.046199710465	-0.995811860698	0.53442849061
-17.28159610162	-0.5354348476	0.9225861155
-16.735735236133	0	0.812770020857
-17	0	1.25
-16.456826706095	-0.492820916056	0.887978656296
-30.492472332883	-8.659444944868	0.813513342101
-31.361147734551	-10.238438853123	5.40038953697
-29.008981342019	-7.230646390864	3.490706780513
-31.689948247484	-6.355565119605	2.841939159437
-21.813446432794	0	0.807184458401
-22.049250306985	0	0.590376391452
-21.83901856893	0	0.459066452428
-21.90866673205	-0.419634254865	0.278617415942
-22	0	0.25
-37.665693260222	-8.691169999249	2.109587396814
-35.464505790965	-11.900855854013	3.856128203013
-40	-9.29482259366	5.674149926809
-40	-10.831570408767	3
-7.219550327811	-0.939381886517	-2.232868250295
-5.706827699849	-4.044691803866	-3.816358870048
-4.812738229524	-0.950011603515	-2.152830557338
-6.758424680234	-3.09092368226	-1.267936190708
-7.554969191933	5.247191762343	9.610039151386
-12.78597373693	5.132877479312	8.521087856823
-7.784378572599	1.361771202249	11.182905381957
-10.492783208727	2.702014323657	15
-33.837900352369	-2.423403891811	-0.862353532734
-34.224097977278	-1.161639194239	0.420409008967
-33.379848318654	-1.46832932939	0.354270449739
-33.606076445067	-0.773406825753	-0.426136719423
-2.195042617158	4.792563925737	-3.092723687595
-5.000000000061	0	0
-5.590490661047	-0.580625388148	-0.704245499667
-5.500000000066	0	0
-4.800263670584	0.32144662293	-0.719659777314
-24.055555555661	-15	-3.945226839443
-19.060043721967	-11.80966122964	-2.789969068522
-23.925105835486	-8.249428312313	-3.379705930674
-22.185870090344	-10.125810024685	-0.463877341542
-35.03494891252	-6.111140195735	1.674500677813
-33.934105410132	-4.362434896249	4.460632066848
-33.805546011445	-8.765467120867	2.337124389443
-17.000000000105	0	3
-16.750000000104	0.433012701893	3
-17.500000000105	0	3
-16.675275842272	0.366384816443	3.757957577132
-10.262757558335	0	0.814235952805
-10.728452279906	0	0.870972870713
-10.52446668793	0	0.503288299858
-10.885899554113	-0.382764789132	0.853807115895
-10.500000000095	0	0
-10.219854658408	0	0.35868716083
-10.076781898679	-0.346958966654	0.400023544232
-14.877521108001	-1.66063735071	1.389128818331
-15.453587120597	-2.894289311585	2.0700059884
-15.984840876461	-1.367495425268	2.082461792793
-16.18763022024	-1.641047603605	1.078877087723
-38.000000000014	0	0
-38.071428571443	0.496682234501	0
-37.500000000018	0	0
-37.903274401895	-0.339946893818	-0.62559910751
-6.500000000076	0	3
-7.000000000081	0	3
-6.655039607592	-0.57582225199	2.629555309964
-7.479878858485	-0.805351681943	3.547629943895
-10.783072461098	0	0.299813538815
-10.89727040181	-0.373815846529	0.28695551192
-34.75000000004	0	1.70096189433
-34.242066026745	0	1.687291976171
-34.503090953791	0	2.132311280051
-34.082456274039	-0.606004650042	1.809627518521
-21.136768432278	-1.680740112589	2.101467839608
-19.65802212255	-1.259551098758	1.860789284625
-20.301105645675	-1.447989136243	0.867947742743
-20.61965854801	-0.890387847218	1.442985116432
-9.405820950626	-5.875945212291	2.847029277621
-8.756427941021	-2.843915267755	4.06636604097
-6.428696419827	-5.815104319782	3.426785054781
-7.773209090171	-4.210291554895	2.005271606461
-38.240540649349	0.513519378131	3
-38.000000000014	0	3
-37.666666666684	0.553810620573	3
-38.674562343859	0.152551954428	3.817245109862
-30.500000000069	0	0
-30.475473002201	0	0.499925706563
-30.77996445538	0	0.357885302781
-30.579976746039	-0.476587223359	0.718193127338
-27.833835191391	-3.229217620162	-3.391547121015
-26.048238799453	-2.525240289541	-1.120825207445
-27.782834158065	-2.379444070037	-0.663229014815
-27.012064570563	-4.531044765279	-0.973160355543
-10.388888888913	-15	1.5
-9.439088088623	-11.379127745027	-1.414406026004
-11.147275348601	-10.815456710723	1.722436368218
-8.13163482478	-11.362589564273	1.707403689981
0.321241710716	-0.953296195384	0.360565995167
-0.572291782769	-0.492483716928	0.401685373183
-0.077633682948	-0.318099514517	0.381185357061
0.282983723993	-0.557904591706	-0.171668197347
-10.027085375279	-1.868720909015	1.046479156318
-8.706902804388	-1.223041206961	0.450064374618
-8.608595646005	-2.369002243043	1.394320824986
-9.397834301978	-1.834521959536	-0.009528733266
-10.724804291769	-3.840144871593	-1.354018309793
-11.613519109524	-2.400135346559	-0.235000026856
-12.252760601909	-1.302626094243	-1.858437229134
-12.910440555739	-3.348637548645	-0.975977034068
-22.211974832218	0	0.303053680188
-31.520552816081	-0.02563287743	-15
-33.260097942923	-1.779212486388	-8.390876023261
-34.971729706172	1.970429640462	-9.754101088747
-36.747746565244	-1.273883647891	-10.521023626692
-33.7643621013	0.284999264162	-0.952734213472
-34.50000000004	0	0
-34.250000000042	0.433012701889	0
-35.286938111972	0.277522582526	-0.728613977524
-18.984940828762	0	2.125803768849
-18.745321937193	0	2.562758079046
-19.247438605073	0	2.565610983496
-18.830131258063	-0.53331677446	2.043132738981
-16.970747800372	-0.338051395059	0.428992684535
-22.772499936056	-0.152126660645	9.54151541264
-24.635657242909	-4.344534698172	10.987899249634
-19.832069652519	-3.602456058753	10.035878963498
-19.903795883438	0.460872055816	11.944338691011
-3.666666666658	6.999999999987	0
-4.204585112264	4.861375772701	2.385462535607
-8.500000000093	0	3
-8.35381392572	-1.117943073791	2.721148063882
-8.000000000091	0	3
1	-0.555869079997	3
0.752980951214	-0.243171798981	2.794354138788
1	-0.36666367104	2.655042985643
0.428504273457	-0.525821841217	2.471271846065
-40	1.075817129554	6.999695946543
-35.955690504926	-0.054308743037	8.704384291657
-37.924708112442	0.741935278611	4.982987961194
-37.128095139301	2.705278327298	5.114606044994
-11.97785367689	-4.205825039937	0.613973701209
-14.206772251922	-5.425390454357	-0.065879172613
-13.892695643342	-3.690667406762	0.5193274004
-12.20381279389	-6.873282554324	1.531829782116
-9.74480325115	-5.309269283698	0.474801748469
-11.33529771041	-4.287352069772	2.843037760253
-30.493694882859	-3.907145153126	4.4170000045
-32.573018458249	-6.653577370787	6.703246632544
-19.459701091621	-10.682742759568	15
-17.53390818053	-10.194087123937	8.377584319864
-22.716981180908	-10.595559018392	10.208687895438
-20.906140819625	-7.135444825038	10.358145832098
-3.259025763004	0	1.728264922121
-3.002053783706	-0.45575192338	1.155893723436
-3.19158326797	-0.704962149086	1.80295658556
-3.514858108356	0	1.388070625434
-13.852116376263	-0.928764420714	1.192932965077
-14.442406363142	-0.446687766609	0.813573276995
-14.232074095793	-1.338774963107	0.437985441746
-14.547662692906	-0.680726411002	1.431200952216
-28.75243902067	0	2.57152614586
-29.247589787762	0	2.567450950129
-29.000646118679	0	2.150116160004
-28.800960184044	-0.584858690082	2.077438514102
-24.187979224673	-0.956416483239	0.539783495579
-24.969198000124	-1.848852119594	0.079949780348
-25.013091411955	-0.962039440737	0.54382964352
-24.777072222637	-0.619425196206	-0.242397218681
-26.748689099877	0	1.695498685755
-26.254384189818	0	1.699496242246
-26.738284858142	-0.465171643803	1.843348420265
-30.211974832203	0	0.30305368019
-30.013257414301	-0.322834050771	0.405993590989
-31.22922574159	1.706795194127	-6.945719812603
-34.088751467639	0.963415937076	-6.131901399982
-19.562188884032	-0.533530901528	-0.323087524407
-20.092605157875	-0.356626105834	0.337994745053
-19.500000000108	0	0
-20.000000000109	0	0
-25.711916295588	-0.867280121491	-0.226399639444
-25.887139626549	-1.064020369165	0.563654511387
-25.629042232128	-0.333636704599	0.364525715365
-38.098391259066	-1.158974010735	-2.3745968441
-40	-0.729258569095	-1.79137770716
-40	-1.953790012412	-1.934609419819
-39.069125585409	-0.913803003908	-1.081363983998
-35.833887134994	7.875585467605	-15
-31.024965235394	6.101316614253	-9.391490065363
-35.476955823308	10.082731106433	-9.833951550693
-36.480505031405	5.086725050297	-10.203758348759
-31.689090222679	-4.081369878918	-11.189277376758
-7.802960592404	-7.412121019607	0.525757990296
-38.320319474014	-0.5776132738	2.902446743853
-39.139415691268	-0.914999980005	2.861576218053
-38.540695548365	-1.462483730996	3.794966685647
-10.356988260325	-0.929313349298	0.99525771954
-11.269070626635	-1.191866501373	0.518750402457
-11.509783766591	-0.563286975068	1.458888727803
-22.500000000113	0	3
-22.000000000112	0	3
[...]
CELL_DATA 11955
SCALARS Resistivity(log10) double 1
LOOKUP_TABLE default
3.2600415022618 3.6245682549142 2.2252497937281 3.1571294482071 2.8848865652597 1.7503516745634 3.3367039414789 2.7921005187196 3.2894020074461 3.272199240734 3.2120132542803 3.9346334423237 3.3116477522305 2.7303472488305 2.7189922758528 3.2815783533978 2.9771945211201 3.5917846380613 3.0653263466862 2.1274589971653 2.5610941064811 3.3508276009025 3.2126542793911 3.2036114588277 3.8261753094171 3.1555302465044 3.7003866805805 1.9855508097359 3.7070442022513 3.5535513179148 2.3157880414772 3.335596376484 3.9860435398327 2.9368764054679 2.8454701569299 3.2110598388337 3.5063320423375 3.5264079534998 3.4589314054491 3.3580612058073 2.4081218456654 1.8915363169341 1.6225256171593 3.2525289982348 3.9893242997434 3.3734113851757 2.3034041211932 2.4901831845022 3.5719177319732 3.7362849939263 3.1340618737438 3.611028066967 3.7840649532748 3.0273316343574 3.5656674430809 3.9669634358918 3.5891360432737 2.9093312670323 3.0922217806527 2.8499102683116 2.963252445666 1.8830191476062 3.3826132614308 3.4814121961399 2.1119745422237 1.3923908515571 2.0389912887959 3.8833502093939 2.9295623173515 3.712947484979 2.7739675895585 2.7200082672099 2.9491294942391 3.2375627532475 3.5347331950474 3.0774975259294 3.7889001109405 3.7842228908458 3.4745678559964 2.8798133087932 3.6913185649424 3.3117483981477 3.689309676242 3.2832491269787 3.6143834530708 3.2439759410425 3.4338914552458 2.0334784678191 2.8278647733351 3.2349156994193 2.7129131997082 2.9678908617823 2.8053203297935 3.5212456112365 1.9103997767661 3.4005040308894 2.5281676891721 3.9135109827767 3.1800246732776 3.1482292291769 1.8314561471853 3.6452257654679 2.8548589677631 3.6737324160934 1.9481107768217 3.0587347161652 2.9454461210697 2.9496009329657 3.3604228575488 3.3973627930219 1.4749635435128 3.2226845977618 1.8961562479523 0.44260146477191 2.5909461794855 3.3745569706349 3.0500871108703 3.3447483273079 3.6955576776817 3.4143963232487 3.0566733416471 2.7785444292147 3.8973099754547 3.4816465589429 2.9890659169561 1.7851654406918 3.0341830268095 2.3466529636475 3.698184039671 2.3638605298418 2.5745747706531 3.4398948922707 2.3986565759124 3.4925985596624 2.234280110021 2.045337644694 3.8766483096238 2.1795054409484 3.0746107332572 2.7422012751387 3.9135167827395 3.4041709011228 3.0753297678127 3.0400881381875 3.372586838912 2.3787691023118 3.5611855581279 3.6030966078401 3.1454317822277 2.4395832353959 3.357032899362 3.2159052728062 3.0457429441622 4.2455952784235 3.0719540957442 2.0253297152792 3.0508830111552 3.1656087569603 3.2959696182145 3.3630036826234 3.2944455114369 3.0737811093478 2.5396375208229 2.8495090539763 2.7498003049638 3.157962021728 3.1338171408805 3.3467198235821 3.5725720992572 4.0164352912985 3.7456243281162 3.3604549825521 4.1064371783589 3.1823014039683 3.9052554501507 2.9955292609782 3.6487684448862 2.7682618553403 2.9521034679786 3.4278265403054 3.0061205778937 2.8748977281634 3.0497408821713 1.5240628830586 3.2906150560862 3.6543847668517 3.5510484357346 3.4032174840672 2.7486310872205 3.1004440898834 3.4433134978332 2.6586138524658 3.4902981700505 2.9314327827505 0.87158883286367 3.3017607729959 3.2546520124066 3.8852042169793 3.4473652880581 2.5899914682195 3.3581135090365 1.8462072522466 3.3537929429681 3.8379191843482 3.3596178534892 3.4838339153242 3.3228587537002 3.396333930095 3.7107468386739 2.7802697381234 3.3161975413526 3.9793634683514 3.2537210489568 3.3606172006664 3.8383934181351 3.9207802375055 3.4032205671086 3.3281167537326 3.8037703447227 3.0599732223508 3.2970181617978 3.2160769916246 3.1229266279132 3.1326349290868 3.7496057699345 2.5453127438461 3.6563179066093 3.1259391852353 3.4492515825292 3.6248979034236 3.2134449064426 3.6604145043631 3.7171643956836 3.6864957760183 3.5918955850373 3.8356947240855 3.2418431750714 3.5141507204227 4.0751255080401 3.8945991733384 3.0510271768146 1.5803082355276 3.1622661476768 2.523019087011 3.4900885493854 3.0151737084319 3.0966031111408 2.4776751706475 3.7166601981387 3.4674465140707 3.0228558424205 3.014561186668 3.6821440524534 3.5031393890835 2.8614800810133 3.4231897012927 4.2033633235509 3.3589650112362 2.7836270825669 3.3496256912346 3.3703538203787 2.9929543637068 3.147553673537 3.1910024290984 2.8928946139378 2.5560592901894 2.355330742263 3.5257543073158 2.7016253966785 3.3729953895496 3.366212425671 3.8956871109094 2.2353929503981 3.3840135225869 1.7090565973963 3.3207404373383 4.1101242609084 1.7999433272557 4.2273475535568 3.6571120936175 3.7096157357234 3.1697487745653 4.0400342698347 3.243943600356 3.8404713817345 3.3555727987735 3.1896770301164 3.6868275760173 1.6868300229897 3.819673815324 1.7816067162424 3.1741934226257 4.049693591167 3.1526125585169 2.5991268918334 3.4542021262544 3.270615535888 3.7432624851208 3.6850443834535 2.9918442907118 3.68597295076 3.701132894785 3.7148698748671 3.2354569590664 2.8140697609339 3.3186047036827 3.4872160725595 3.421119387868 3.2614595959483 2.6276124234396 3.433998174959 2.9272771139856 4.0312479653596 3.5481829034855 3.3897067859796 1.9173144217575 2.465419556113 4.1519638744408 2.9263089303539 4.3437687076466 3.2268474858653 2.3161737271494 3.1372566910154 2.9203559611616 3.8918637635173 3.3822620441953 3.2658351707626 2.9105248508265 2.7445770208352 3.2188971918931 3.8915322044004 2.6951395113373 2.2071535477656 2.7470994479184 4.1249884101886 3.4807846961844 2.4827346262298 3.7135734572067 3.3563834545466 3.8357124773886 4.0211589984031 3.6720594280858 2.2452999211671 3.1968108136555 2.9080946368026 3.3602393474893 3.8577989128545 2.7173500115288 2.6887579710973 3.1273355682671 3.4259596196332 3.1678178937442 2.8412644448054 3.5948939866511 3.0185259429476 2.2965239476545 3.3003451705154 3.5292755273426 3.2359532881256 2.7655361756493 4.0893472232196 3.0387776560061 3.253482123857 3.5280161027284 2.6120883962079 2.9225637777555 3.6576470446765 2.8721245319819 3.6577762682162 2.6661551284184 3.8084949667361 2.9218826925641 3.5008986900075 2.9396135483937 3.6794167233607 2.1901335044847 3.0181085882163 1.6337385521283 3.3583640400737 2.9822702448834 3.7889707704743 3.2020183034626 2.0442488401691 3.0759556515874 3.1196836055895 3.4934369817083 3.7830845383706 2.3443178460299 2.4177849032818 3.1011518455804 3.3054623478379 3.4496727054032 3.1116627970862 2.3833757985962 4.4468885474556 3.248651506151 1.6282913718864 2.7002815427566 3.6990572846518 3.2060302036086 3.5612831886668 3.2081685038305 3.0278098358382 3.5254171718571 1.2943293233353 3.3761395296635 3.6436292336381 4.0063386323602 2.9131363875503 2.48510744856 3.5170211326639 1.8493785975358 3.5645163441523 3.1361826273554 2.8801855253873 2.8072070867151 3.0171770480752 2.3411434070971 3.0256926638478 3.5700589678967 2.4813184577535 2.1951460430034 3.6417265466063 3.0723689547391 3.6987118259202 3.2537318944226 2.7737003990743 3.5055571515789 2.5034047334149 3.7773063972505 3.5816893513379 2.9977508959092 3.1063001593164 2.370424625799 3.5077685793128 3.500247446937 1.3233850695724 3.5498349642092 3.8573417818636 3.4493057106709 1.2920107646775 1.8655764553039 3.3763356204073 1.1787880847919 2.8171971791265 4.0568926554041 3.6843793229391 3.4805751393455 3.4501691654709 3.5527163344016 3.1820615410521 2.9536144219926 3.7303258061311 3.6542278567987 3.4816256098285 1.9789245220066 2.8255316915234 2.3839411305009 3.1352690360082 3.3239470516098 3.9927027666243 3.1381925127621 3.7485657532804 2.7644170957133 4.0016748024378 3.7252733339826 3.0485044986754 2.6402768061443 3.1003898475562 1.2235123603344 3.6032844246608 3.0219712183254 2.4274203220848 3.9222588394087 2.6346219541059 1.7147478598745 3.0632101940117 2.985465222168 1.6927758841402 3.3175205715894 3.5674244615374 2.8374546739156 2.6707789150337 2.4389413196609 3.6835921041453 2.3772889764278 3.2052641692586 3.0473433592575 3.2678477875417 2.7910279989105 1.7709316643415 3.05729584848 3.156951164403 3.2664589341088 3.1405528985653 3.1159883747773 3.2416745171076 3.7337874448747 2.077554051139 2.748712478049 3.3278582651192 3.1503043663345 3.243558261389 3.4989951778511 3.9598563463069 2.5673736932173 3.9093366867 3.1622378547273 2.9430575982314 3.1661082637614 3.1494369539435 3.4712249538206 3.0530160344127 1.976807800672 2.175007480442 3.6790722651204 4.1061805836501 2.6178876764052 2.9166596272381 3.5020514722388 3.7742625936096 2.9887166677751 3.3287285774922 3.9183491306637 3.3025341267949 3.8058640785737 2.8164586618681 2.0509560615364 2.4771838006335 3.3329080346628 3.8412530419973 3.0355259123636 2.6884416409411 2.2997450790637 3.7250607459638 3.0147315242491 3.0407910282588 3.2771558709571 2.8309361270721 3.9899643546512 3.6994964013959 3.6527625545461 3.1644785366959 3.2914871397955 3.5315074281394 2.8254039228801 2.9834358921402 3.3871023912332 3.6651784912662 3.0590634457157 2.5521699698304 3.0566730600171 3.228669212485 3.0510404774046 3.077503208988 3.358827617222 3.2835030882619 3.6324348155768 2.8055974971102 3.3077765038488 4.0761958430739 3.9833671508846 1.4359530587031 3.2441727183784 3.1799430980892 3.7123897767177 2.86780967932 3.5830395728071 3.9108315571346 1.2795852466003 1.9346725133137 3.1233675911626 2.555971146219 3.3211139365688 3.032833166248 1.9598715126098 2.8257917777768 3.2378961032089 3.853921629762 1.4251349139678 3.2745022787001 3.197912911813 3.0733446371987 3.4003198835372 1.4143783269903 3.7830055886474 3.0369455427242 3.7671588840506 3.0284492512134 3.9706981483383 3.1945288112209 1.0042687251633 3.052739524557 3.6877131939109 3.2254431458399 3.0293283565616 3.1343046458696 2.7408572630573 3.3659570653395 3.3077524126019 3.104625552885 3.9503951403918 3.5417129579855 3.277434935415 1.9629819208322 3.7382823483764 4.1763523884794 1.7206836306599 3.2889570345983 2.3004979976554 1.2680149974372 2.065652931089 3.2686364346954 2.8158667772616 3.4146534531849 1.771594495243 3.7114442852519 3.6194322564323 2.407511647846 3.2561665867876 2.8187512251664 3.3251306834152 4.314402573794 2.662415122631 2.7971411498281 3.6859994683627 3.1643796497228 3.5547594912419 2.6814653206502 3.9031134947056 3.4196785912553 3.5567013653163 3.7325237934279 2.2589327725837 3.0605929205891 3.7589553791123 2.5855449714971 3.637893632507 2.8697723863021 1.4253346304201 2.9148277415254 3.3307079257586 4.1513973003288 3.9819675575855 3.2822484762095 3.4499263604879 3.6720982428249 3.2814664557658 2.7151754155085 2.0885895272266 3.745092489722 3.0946753931541 2.2019255804958 3.7619519219221 3.2046733326701 3.9713505254354 3.5072089085994 2.6434330279957 3.4157180249926 3.4802121862811 3.2223425656684 2.6913857541812 3.4465496235323 2.4527004232327 3.5309048987577 3.4912859605019 2.9338741912848 4.017045360168 3.4293876658626 1.4324088223801 2.9921661085731 2.8959837167163 3.3582435945051 3.2735258863189 1.4415493120408 3.1062882681584 3.0646448928675 3.0743080906907 3.5159437552071 3.8886068034802 3.4998064962176 3.6963733277912 1.8310751310936 3.6046989134686 1.8722898295881 1.3111454950265 3.0114608545444 3.8728705143031 2.6470019064028 3.1027414331112 1.4290018284905 3.7356102842851 3.7322905901186 4.1343595925867 3.7110506360842 2.8486024048579 3.6992371889538 3.1195448375399 3.1378890766324 2.6733760205508 3.0373962958822 3.6205464339246 3.7878306723579 3.4897230850639 3.0223434537786 2.6822779059599 2.393250559256 3.1502245272682 3.2924776526896 3.702788887295 3.1029458886271 4.0541815078736 2.6700648080106 2.9664532181384 3.2908663451547 4.1206659526811 3.4346183411911 2.6339863019374 3.7548315834065 2.4129345066286 2.9960929973638 2.576061018742 2.6695613256687 3.3773147768016 3.2117281086028 2.7122368924409 3.3194229748684 3.7908145721543 2.4184887072548 3.2392533394349 1.890025364444 3.4811884629498 3.262270712144 3.7280806918849 2.0878991946742 3.9244449216042 3.0057200575429 2.0760925049888 2.2564857563548 3.0026872661247 1.4392718340695 2.8855338618859 1.9697499948163 3.2685603388259 3.7514365598563 3.0664723148001 3.168609783965 1.781446368877 3.9749543699845 3.265310971747 3.1640420771824 3.5521525812734 2.9870728310206 3.2087192509733 3.9078139731652 3.7661333892482 3.1985891973808 3.1692051854912 3.9993184018321 2.9683145287237 2.6582866295823 3.107721318546 3.3413983096039 3.659913288602 3.3903930792867 2.125392762975 3.4668101412719 3.6781284234225 3.5660233822465 3.024633792575 3.516089588891 3.6262354599276 2.9168968181151 2.3073297436334 3.5035501914826 2.5243469259504 1.7354160758137 2.928963654064 3.092811818944 3.6759121654914 3.7068674166319 2.6227440754068 4.2333148268589 2.6541411794837 4.0034125653985 3.148007313172 4.1857129602708 3.0647535127155 3.3872780722791 3.0390949680589 3.5129671524101 3.6523809338926 2.5444518367127 3.5983511076628 2.9553345456873 3.6288480798305 3.5251275421754 2.3673223409799 3.6530590182801 3.5752946371056 3.5918004538334 2.8614065168508 2.9779900255724 4.2367915911343 3.5479507763495 1.8805254277548 3.0055950350453 3.5254266729275 3.9495494702543 1.2640557167985 3.692719090425 3.5667984889937 2.9811384333962 3.6730457024101 3.7120994231841 3.4074049293416 3.7198838178911 3.7660299625761 2.9904625003004 3.7580272637424 3.6653762928462 2.9907374008435 4.2546404888922 3.2383269548101 1.9263423508173 3.6837270549787 3.4830910800833 4.1676343713977 3.4462247251307 3.2838137106912 1.9330785527349 2.711076322302 2.4076413510864 3.3216492925179 4.0964377866179 3.3942852122023 3.9403258799181 2.741685525921 2.3854938480443 2.9996573790402 3.7535290394474 2.0519765964091 2.5352839704314 3.8099946923684 3.3016663233066 2.7251069353131 3.2012999668429 1.2427996217573 3.7587451059084 3.9261608410445 2.8124967674254 3.5643208008782 3.2269730824688 3.1947751260794 3.354281659066 2.4644226800021 2.7784634722362 3.1215440153814 1.2766330919915 2.9118642228355 3.1561183081176 3.7208344714766 3.2956398740537 3.9623043136003 3.6576041814031 3.3613147631399 3.8174368787692 3.09040739464 3.8079820196057 3.1326720256659 3.6430258750615 3.4489007168693 3.1410954119399 2.4657508888328 4.0069947346659 3.7112490497679 3.9773169622466 3.4793420169999 3.372721356204 3.9253017104727 2.4661430841583 3.5156040800236 3.7985638042922 2.7274479405711 1.9821292570602 3.1736771682391 3.6327336190501 2.8592981370695 2.2461995991602 3.1552449838092 3.1452966304548 3.3397778027208 3.1049903807754 3.6818792176524 2.5295313019505 3.7574726647367 2.9865536961364 2.7794048925525 1.2951504858912 3.6583661933343 3.0931717584135 2.7087322004893 4.0088520206259 3.2381270552566 3.3437999220952 3.2028933228416 3.0470127289956 3.9224324859428 3.7484612437997 4.0822134989859 3.2271616210691 3.0132432136057 3.6035019407207 3.4342041299563 3.3945386025036 3.4348302596993 3.4051201501934 2.718873301465 0.52652730874203 3.7329468154558 1.67312358334 2.7248534619149 3.4373466453525 2.9324852468424 0.40542930524734 3.8543914948094 3.3178982124548 3.5462364049944 3.3982388584361 3.2384232425926 3.9620584364558 3.5163025923588 3.5413199314875 3.510718523942 3.7211097084248 3.3842138608365 3.4289802557252 3.3563211497427 2.7847797327499 2.1691484828309 2.5302059317265 3.8358395172784 2.7993930212845 3.6775024078479 3.3958809744396 2.2206726144806 3.6285705293503 3.0835535579908 2.4634995299832 2.0041536253163 1.8385868806219 2.4626907139319 3.2029382345789 3.2052730232318 3.6088460170705 3.5788764446959 3.3194544431825 2.4700628873442 2.4088319985488 1.7648008608471 3.0192531156093 2.0264365438074 3.1564861558309 2.0430291024834 2.4617477935912 1.7482579999816 4.3726276041661 4.0095974771503 2.9124347569526 3.9748638167347 2.7272805128257 3.0602384979619 2.2823584458139 3.7669814173679 3.1026046588266 3.314745693384 1.6608570241778 1.5766579208496 3.6311631163676 3.9787684839151 2.3464947805837 3.8768549427401 3.9645436969557 3.1194829300982 4.020016358204 1.7651131470324 3.7125872168592 1.8067382690058 2.9157449894424 3.2615945610923 2.6901922212393 3.614390701155 3.1380997599418 3.9133724555109 2.276273000286 2.7408284779231 3.6939068213122 3.8981885580814 3.4434456183572 3.0925081320894 3.2046673431323 3.8902556810516 3.401144975183 3.5703297847099 3.0312420714058 3.5743656716358 3.7537190675197 2.4748277910539 2.9596298804658 3.5395348726959 3.4982502075671 2.5763720265176 2.8337973134262 2.2873796097381 3.0387623897412 3.1908119532304 2.38060056883 3.5235917666793 2.8951206941252 3.7309498875939 3.7560883309132 1.8717436485594 3.7408350722265 2.8924039481533 1.9749632503718 2.80353629618 3.6745040510845 3.6536244334367 2.5769802035378 2.868595521195 3.3972009707557 2.7804774411712 4.0070517960316 2.9164691560099 2.7442202453491 3.4178948339081 3.2562055927423 3.6546736260278 3.134876785434 3.2289643536976 2.9904821877051 3.7249121906326 3.1910771352261 2.7656805821506 3.1965379362439 2.949533038653 2.9700485794857 2.1178583648128 3.5501205880654 2.0298796128922 3.7157175691818 2.6928648758002 3.4042596615232 1.4956589352078 2.3952562279147 3.3054769850718 3.0949134105404 3.7842213122067 3.85746460954 3.2026837079767 4.0090633770016 1.9780534500624 4.1621489554233 4.1939180780994 3.0245184915055 3.025703885342 3.8470419150194 1.9790028391655 3.4496791395714 3.6486790968594 3.3163511669812 3.2813812256315 3.4876031355476 3.9410400223193 3.7301445069621 3.6920384169108 4.2153665005237 3.557730040701 4.0219042007832 1.5245205517037 2.9629758517838 3.1876785890044 3.9345611859204 2.9133124462351 1.5166014889283 3.4690027172667 2.8978507486501 3.2774683629518 3.1834441832514 3.1797288334445 3.0165218030789 3.4857110151366 1.7751275816802 3.5255103641634 2.2840536125802 2.6929835711867 2.6203766650504 4.1450909149648 2.5453493532548 3.3995599085538 1.3130661978363 3.1706611410873 3.6182107645145 3.5723999740248 3.5545232915579 3.6026362026713 3.6825543200782 3.271934542734 2.4499813278641 3.7118012432393 4.4766114349831 3.6658467195902 3.1394743083677 2.8479320517335 3.8467144601513 2.3893813151601 1.8540457591147 3.6969377741181 3.7521163376275 3.0582686657514 3.0954550661322 3.5091984985745 2.3962164517476 3.8963006240324 3.0169808321735 2.8732492816079 2.9276217642135 2.0045924661968 1.8332483838553 3.0990613524489 3.927142055559 3.0800741781685 2.732450655166 2.9375008902275 3.118058639471 3.5848894053949 3.0086128779535 2.9190051748958 2.2607450268513 2.1500443847144 3.8218334061251 2.5221806309129 3.3435220078855 2.894682487701 3.0414425650458 3.3838410908247 3.0479850824959 3.8252840010321 3.5399204587935 3.1060045757812 3.9382388102859 3.7276590597514 3.420285063551 3.18298034382 3.7172985809984 3.1485686302427 3.4430996203636 3.2408929783423 3.6882523331624 3.1445948518084 3.2324960897692 4.2597611881816 3.0159708336337 3.6790950863663 3.7413662613013 3.5723264552503 2.2337918754408 3.204023154325 3.2973806363217 2.4793338275991 3.3400405800642 3.9752272293842 3.5629636737667 3.3772489892843 3.0789996965276 3.1819355345612 3.2031515753413 3.41395507785 3.6916328495244 3.1409110042651 2.856353104782 2.3551050239491 2.2238574040854 3.8346298967294 3.1596114529528 3.5276824042729 3.6916446234231 2.9754967115285 3.5400514070632 3.0311654672745 3.3779932308596 1.717103151792 2.5137649010175 3.4088781256461 2.6115480345249 4.3912523734782 1.8237299333724 3.6451487301762 3.0967637753796 3.1769929587051 3.4353928882142 2.9511694513186 3.3834842978508 2.467310388208 3.2805452258381 3.0394761517273 3.5442159494772 3.7621291924255 3.3753988707568 3.1614912942991 1.6215299083356 3.6178674350183 3.7019896862269 1.7167828176801 3.4514689582695 2.9862498142144 3.5040874620549 2.9207977826919 1.4531379383131 3.158545435128 3.5544410404639 3.5098760340248 2.4673212167821 3.5696387385533 3.1602378339776 3.1532812205814 3.6890078515327 3.7194688494841 3.6371458365823 3.5629937146423 3.3593723607713 2.5596372035189 1.6299578492697 3.5234963875337 2.9847312912383 3.121983379578 4.3006052612806 3.0013539114591 2.8769316032531 3.3379083598372 3.1271754197559 2.1507951557029 3.9054781151423 2.8735889021673 2.7343483412204 3.5490167932628 3.4759901587861 3.906215548583 1.2511817148677 3.6149389141659 3.4880622185451 3.8931146664043 2.2363436617501 3